% Model:              Liquid-sperm.mph
% Version:            COMSOL 6.2.0.290
% Date:               Jan 19 2024, 12:31
% Dimension:          2
% Nodes:              1154
% Expressions:        2
% Description:        Velocity field, x-component, Velocity field, y-component
% Length unit:        m
% x                       y                        u (m/s)                  v (m/s)
-2.0E-4                   -6.929128652456605E-5    0.14                     6.497962091021645E-16
-1.9999999999999998E-4    -7.221120784031401E-5    0.14                     -1.844819216415478E-15
-1.9564520234157797E-4    -7.022891387666211E-5    0.13997007408409143      0.03395376220597606
-2.0000000000000004E-4    6.967972802337731E-5     0.14                     -3.050491654853034E-16
-1.9441249823686424E-4    7.051926279000497E-5     0.1363580116489025       -0.038108669627267035
-2.0E-4                   7.211198863294088E-5     0.14                     -7.800783330492208E-16
-1.9302897526513678E-4    -6.672744455628152E-5    0.14668598603271862      0.0457769465964169
-2.0E-4                   -6.389894298321608E-5    0.14                     0
-2.0E-4                   6.568554423129609E-5     0.14                     4.750291675639174E-16
-1.9231046526272744E-4    6.682695189583227E-5     0.14653860300462038      -0.047113198098658
-2.0E-4                   -5.7924696274466045E-5   0.14                     0
-1.919932113453527E-4     -6.0143559708062046E-5   0.14960223774421644      0.03929009227923997
-2.0E-4                   5.8980781884755937E-5    0.14                     1.7630336216699473E-16
-1.9234162462613609E-4    6.132682734449748E-5     0.14838710315711998      -0.03998758161464929
-2.0E-4                   -4.879114253275954E-5    0.14                     1.384099228213662E-16
-1.9086786302888734E-4    -5.1112634418465097E-5   0.1473894942218165       0.0283208095404304
-2.0000000000000004E-4    -3.5082921596184174E-5   0.14                     4.3451946602684467E-17
-1.90425626776226E-4      -3.8550506769962605E-5   0.14398712944356992      0.01560317313874912
-1.896237247987029E-4     -2.1440384188875267E-5   0.14196083213996713      0.006831182061248141
-2.0E-4                   -1.5101937613541613E-5   0.14                     -9.495797621868173E-17
-1.8959826114039546E-4    -6.607333093555663E-6    0.14142667933573153      0.0018934429268544339
-2.0E-4                   1.3552527156068805E-20   0.14                     0
-1.8965416029607238E-4    6.596342991564512E-6     0.1414392363801457       -0.0018057200036873512
-2.0E-4                   1.5084753848020001E-5    0.14                     0
-1.8981159159349895E-4    2.150119590571927E-5     0.14206972981911406      -0.006667796405712858
-2.0E-4                   3.093563447123915E-5     0.14                     -1.0977974359997078E-16
-1.9049341150195268E-4    3.7635204896225666E-5    0.14364342515344816      -0.014841269500548105
-1.9999999999999998E-4    4.8218912238433154E-5    0.14                     6.652361856702394E-17
-1.9147859016456096E-4    5.170969649213857E-5     0.1466803425366555       -0.02734714920741167
2.0E-4                    6.925397717002108E-5     0.03476338960839984      0.013155498073197979
2.0E-4                    7.219790683135302E-5     0.02028547438676426      0.005623600186846521
1.9561865727919805E-4     7.012276345806415E-5     0.023967593164955007     0.003209900500373146
1.931115268969158E-4      6.682367567938134E-5     0.03961956413853168      0.0013202352797213692
1.9999999999999998E-4     6.413328039369332E-5     0.05785102844116705      0.01903354675628964
1.921562951811542E-4      6.122810588549984E-5     0.06781652267436705      0.0021999352708485277
2.0E-4                    5.744310463074645E-5     0.0867570041303624       0.02157458726503982
1.9143486194370243E-4     5.15690947401267E-5      0.11065808818722699      0.0028185023199185874
2.0E-4                    4.683010168844259E-5     0.1278965784594514       0.019303031252735674
1.9052126680897818E-4     3.8098463924156815E-5    0.1561330864697055       0.0017905907227926696
2.0E-4                    3.090413066207195E-5     0.17361255709617038      0.012352584692291132
1.8994348787707932E-4     2.1310734707402397E-5    0.1937262202681214       7.922033000401127E-4
1.9999999999999998E-4     1.5075123208622914E-5    0.20166673090353207      0.005815445957933772
1.8967514594424575E-4     6.556866266657845E-6     0.2093653726498085       1.538031142538619E-4
2.0E-4                    -1.3552527156068805E-20  0.21069265474838136      4.153226946010854E-5
1.8957677847587665E-4     -6.5304175447645915E-6   0.20952685957106473      -1.346403515541524E-4
2.0E-4                    -1.4944389825392813E-5   0.20202490193055297      -0.0057511829437679705
1.895202420785353E-4      -2.1152905924097E-5      0.19422522387710628      -6.798124210651567E-4
2.0E-4                    -3.0637752733119554E-5   0.17438975899887232      -0.012373143651071984
1.8998924394659884E-4     -3.81958598271773E-5     0.15578263666923872      -0.0013895687749549271
2.0000000000000004E-4     -4.805355152819197E-5    0.12371830063107118      -0.019732521190063797
1.9054890048358718E-4     -5.138491347711327E-5    0.11139918777525175      -0.0019359533173733685
2.0000000000000004E-4     -5.715696877025009E-5    0.08793660172707374      -0.021173241324637115
2.0E-4                    -6.356819048631284E-5    0.060483402064084944     -0.019175549547161046
1.9068967799512482E-4     -6.079225621810063E-5    0.06967420854122137      -5.427518427274677E-4
2.0E-4                    -6.863331443937789E-5    0.03771952898748954      -0.013915972381841077
1.9337809399122227E-4     -6.701248863006915E-5    0.03883636362682282      -0.0019901318378770898
1.9485066660443836E-4     -7.028003612323079E-5    0.022389788799325343     -0.0020906604004895996
2.0E-4                    -7.2154500030148E-5      0.02069447603910129      -0.005930318659936551
-1.916928521146959E-4     -7.013144528516675E-5    0.12679772685237609      0.035185726399487326
-1.9333333333333336E-4    -7.221120784031401E-5    0.10957960082552116      0.030243139594481227
-1.8666666666666671E-4    -7.212490176683346E-5    0.06399210821987211      0.0050925489588860414
-1.9333333333333336E-4    7.211198863294091E-5     0.11386408222622194      -0.030842057274471348
-1.8757859655699956E-4    6.985159187091928E-5     0.10941121913324726      -0.023168507742853426
-1.8666666666666666E-4    7.200915176625796E-5     0.06675150898849963      -0.006221651306867667
-1.858454079457601E-4     -7.059802422428723E-5    0.08751472847441476      0.01076127869530817
-1.7999999999999996E-4    -7.203582717769296E-5    0.047075236634498314     0.0029540793525332115
-1.8631438289768644E-4    -6.805367129577168E-5    0.12209532823356424      0.025668589864191127
-1.7947233041552506E-4    -6.988299916283304E-5    0.075237644649721        0.007909458707198879
-1.733333333333333E-4     -7.19601967379298E-5     0.03819364090554596      0.0018095099957078288
-1.8202547847537823E-4    6.967496866732624E-5     0.08577879246896941      -0.010574860670286797
-1.8E-4                   7.191940180014382E-5     0.04872819535110616      -0.003286779503501499
-1.863310238747123E-4     6.763145843471085E-5     0.12483007480500911      -0.028397282570273786
-1.7415836421654304E-4    6.945920714206549E-5     0.06822007246344437      -0.005806431502138157
-1.7333333333333336E-4    7.185483587749861E-5     0.03935839879643894      -0.00207595761125354
-1.7275871480747917E-4    -6.983485019792168E-5    0.06191110628877166      0.004650744768592035
-1.6666666666666666E-4    -7.189839216853844E-5    0.033144259879839696     0.001022939967882453
-1.806841108281691E-4     -6.742096247194595E-5    0.10697833986951157      0.016609036965097874
-1.8537153121704454E-4    -6.377392355077806E-5    0.14538424206585188      0.03603883165489729
-1.7406019933546247E-4    -6.73981157737332E-5     0.08932576862576369      0.010443447371648174
-1.6788584188068165E-4    6.981341785945536E-5     0.05528602436070614      -0.0032578581252975546
-1.666666666666667E-4     7.181033160248465E-5     0.033962249816419494     -0.001180801872417851
-1.6133539343017497E-4    6.951160032685731E-5     0.05139958851357309      -0.002426231255491271
-1.6E-4                   7.17795642527452E-5      0.030213274338966582     -8.584064518740132E-4
-1.8575514001793007E-4    6.424646150727163E-5     0.14407821255110242      -0.036899426130352735
-1.7984732871445994E-4    6.649786895834054E-5     0.11243022164702003      -0.01762426087396068
-1.726514512082198E-4     6.611971630082076E-5     0.09740779312748037      -0.012021182045783313
-1.658908073566784E-4     -6.978589328170865E-5    0.05343785731273213      0.0029081411071565765
-1.6E-4                   -7.184804007293047E-5    0.029601658431055437     8.596264712308326E-4
-1.6804843723289305E-4    -6.63038092172865E-5     0.08765654869642697      0.008459835728456199
-1.5931110705907252E-4    -7.004482097708889E-5    0.0451752070840554       0.002009625180297578
-1.533333333333333E-4     -7.181135790036647E-5    0.027042430741965096     5.655996611235688E-4
-1.773700521748746E-4     -6.197884493524867E-5    0.13640087934787634      0.027126768278294355
-1.8274008740747387E-4    -5.601788156354788E-5    0.156027685061334        0.03839117204961642
-1.7066237543798078E-4    -6.264286589956063E-5    0.1194341982545479       0.01670168099963125
-1.5456363307015996E-4    6.945306020550282E-5     0.046986972631574815     -0.0017837508250371163
-1.5333333333333334E-4    7.175427469836074E-5     0.02769340453133181      -6.122101671433908E-4
-1.6657538830501485E-4    6.667872362407161E-5     0.08208141958683078      -0.0069989759912125514
-1.5972701436550648E-4    6.667119319120651E-5     0.07321731715395428      -0.0050348341365004596
-1.8353730463906972E-4    5.588153852009427E-5     0.15605701959712637      -0.03940411615511596
-1.772024260942325E-4     6.0965907490596E-5       0.13992604325807956      -0.028226574574438428
-1.6953033688467859E-4    6.134526518261228E-5     0.125208468420114        -0.01864305331516171
-1.475877386708649E-4     6.933991871213554E-5     0.04399612141938422      -0.0014491762481676758
-1.4666666666666666E-4    7.173076733852427E-5     0.02569812932654906      -5.151483521677267E-4
-1.4085603466411557E-4    6.937935587803123E-5     0.04075336945121364      -0.0011414441943455955
-1.4000000000000004E-4    7.171155725290324E-5     0.02409417932774085      -4.1209019247512963E-4
-1.6097179578135147E-4    -6.634148922130487E-5    0.07702730408224613      0.0059934960684489835
-1.6397862605835572E-4    -6.176523107044357E-5    0.11315415551703893      0.01399838083853854
-1.533686246765978E-4     -6.688873462534808E-5    0.06558504614111342      0.003486181055445772
-1.5248876731132824E-4    -6.962188495862497E-5    0.04428344863729622      0.0015240509641828671
-1.4666666666666666E-4    -7.178343770951394E-5    0.025284019494883327     4.0560274920342263E-4
-1.8008607371273517E-4    -4.4873805084847776E-5   0.15676817098913373      0.03265491351793116
-1.7075179296594892E-4    -5.422452168388561E-5    0.15423169072246531      0.030207312296571448
-1.795534505189778E-4     -2.8643160735309824E-5   0.14990755289882277      0.018106380729958533
-1.7919413755624562E-4    -1.3364543481547995E-5   0.14642580174550554      0.007448219605133977
-1.5288620706143394E-4    6.646582745618244E-5     0.0683879144458235       -0.0037676466197224807
-1.7915658566262135E-4    -6.89561070063282E-8     0.1456419228364738       1.0219228361056059E-4
-1.79330461146442E-4      1.3293812999263285E-5    0.14643651723272022      -0.007216434400747388
-1.7988162577101127E-4    2.8547401469717225E-5    0.1496297943849713       -0.017558233768433646
-1.8154974841369588E-4    4.415117212307053E-5     0.15497635580355149      -0.031119674671737537
-1.6230141392065955E-4    6.155926371411711E-5     0.11179095127265874      -0.012789486961746891
-1.5651180022009968E-4    6.252803994978206E-5     0.09850631276315396      -0.008784773210833416
-1.7283716683169374E-4    5.1774177733668274E-5    0.15892235409388003      -0.033572701319684255
-1.6473948701861913E-4    5.548912580948625E-5     0.14166023955842205      -0.02225764723988334
-1.3423123284266597E-4    6.917123489762156E-5     0.03994341452121774      -8.313165820986464E-4
-1.3333333333333337E-4    7.169409136475878E-5     0.022906961599032234     -2.6713995115531977E-4
-1.4647472917380888E-4    6.620997649135573E-5     0.06523901426104374      -0.0032368281693404724
-1.395375396970443E-4     6.609610755252392E-5     0.06181336156009206      -0.0025743325536096164
-1.5614709616331248E-4    -6.178699728479146E-5    0.10266943700516941      0.009394894267012406
-1.591060452573018E-4     -5.509344842987508E-5    0.13892967462895658      0.018210318308798035
-1.498169506709815E-4     -6.282905164611938E-5    0.08991098424495286      0.006249805213830037
-1.4647102829758906E-4    -6.673518956104507E-5    0.061939689256476645     0.002636105810177107
-1.4564117482713612E-4    -6.97362272852618E-5     0.04028532122827474      0.001050868345117436
-1.3999999999999996E-4    -7.175758075734927E-5    0.024000567534832228     3.3179340902025087E-4
-1.3902341366503254E-4    -6.966551438166433E-5    0.038475685695699625     8.703554202121928E-4
-1.3333333333333337E-4    -7.173665733727152E-5    0.02288563326213582      3.033035595490966E-4
-1.6954865029348114E-4    -3.9753682369610995E-5   0.16210790074745038      0.029087290061058858
-1.6051337675926296E-4    -4.628199170318266E-5    0.16054304940537092      0.026805444321894616
-1.6852402764011836E-4    -2.1979068475797766E-5   0.15621044612008272      0.01628806850853967
-1.6854898749930563E-4    -6.956056510760352E-6    0.152645031527368        0.004954884569930555
-1.5038691429879883E-4    6.099056520297318E-5     0.10058822813014538      -0.008397780885276785
-1.686179531714655E-4     6.623165630060265E-6     0.15256954560581548      -0.004638198393614631
-1.688344227104751E-4     2.1323299778627854E-5    0.15595623522069932      -0.015645984890688372
-1.7074894207135712E-4    3.790430872805837E-5     0.16117007449864482      -0.028482701739964086
-1.5634302446470173E-4    5.500928715391065E-5     0.1353109497830249       -0.017434433742224167
-1.6251853012741352E-4    4.64129990364195E-5      0.1611272914411612       -0.02780754157900078
-1.2895049558458389E-4    6.898627751711376E-5     0.03979911393412485      -6.677334404039496E-4
-1.266666666666667E-4     7.167722676959366E-5     0.022168292048837794     -2.0925897950435074E-4
-1.211505508576271E-4     6.968769221734075E-5     0.03391943860203251      -4.7357174892182977E-4
-1.2000000000000002E-4    7.166549548985928E-5     0.021484779385040332     -1.856254406669341E-4
-1.3273124098835796E-4    6.548978524740648E-5     0.06252137168671036      -0.0019903322081816616
-1.4267769164043664E-4    6.057638846177309E-5     0.0964186507154331       -0.006669971412069487
-1.3649880618582692E-4    6.163608067725415E-5     0.08663096074989873      -0.004470008336745233
-1.5353300556745695E-4    -5.00873011935386E-5     0.14891895525047022      0.019959010118546647
-1.4971237402947377E-4    -5.641464764340853E-5    0.12375189545310153      0.012307918318492638
-1.4334994849968277E-4    -6.18031554591015E-5     0.09064712922155678      0.005475702587921557
-1.3982830307401536E-4    -6.659083977087835E-5    0.05934685919404257      0.0021082341469101274
-1.336754044480841E-4     -6.686615878488282E-5    0.05489395875485128      0.0017357276812267708
-1.3239510315272285E-4    -6.962921469291202E-5    0.03677857203170273      7.577151562812172E-4
-1.2666666666666666E-4    -7.172313266925886E-5    0.02195285726837348      2.1218136121595234E-4
-1.5254969585587174E-4    -4.1662585673408766E-5   0.16359392214703813      0.023291143954539444
-1.5698840057772162E-4    -3.080040547962083E-5    0.16729409560081104      0.02282559015796909
-1.5780031865856743E-4    -1.4162100424840814E-5   0.16224745526719628      0.01096253669739909
-1.5785548476363875E-4    -3.008152552035675E-7    0.1601890008902462       2.237861370680818E-4
-1.4658411352990697E-4    5.389838396249093E-5     0.13074542870460734      -0.013090464892274748
-1.5797576988415535E-4    1.3473248774199697E-5    0.16194346713049027      -0.010439890681013989
-1.5785868642292475E-4    3.0441569547146274E-5    0.16767149561124586      -0.022957607715497173
-1.5132551956462475E-4    4.391770515676489E-5     0.16148785397263968      -0.02182173243798974
-1.1416207791414346E-4    6.908014034864657E-5     0.03653796885820743      -3.9779144691062736E-4
-1.1333333333333337E-4    7.165700704615997E-5     0.020924369504467025     -1.3092164030123124E-4
-1.259919760514523E-4     6.536048180211022E-5     0.06090841908400949      -0.0015696148980974955
-1.1951642107767063E-4    6.628551119538948E-5     0.0538136714681846       -0.001112088920745706
-1.3030208072481862E-4    6.025117896638133E-5     0.09068700012546906      -0.003949100438150514
-1.365580872462685E-4     5.454846169276196E-5     0.12152431918261598      -0.008872991677060155
-1.4576785792596631E-4    -4.7489014266078274E-5   0.15125803017188041      0.01741012850579649
-1.4027563003357464E-4    -5.4680213762822315E-5   0.12329218436316947      0.010058390343895577
-1.3630173647134826E-4    -6.117590463625186E-5    0.08940524160405446      0.004838832782851742
-1.3018479893082562E-4    -6.236996694492844E-5    0.07973053370667098      0.0033473881732787878
-1.2708608147818414E-4    -6.667814545361175E-5    0.053739457385054014     0.001344419947605325
-1.2572439737073106E-4    -6.96336954396755E-5     0.035231508847580355     5.370911950905373E-4
-1.1999999999999996E-4    -7.171674254147727E-5    0.021258198643176657     1.6421437773286906E-4
-1.1884503694501171E-4    -6.97537382514462E-5     0.033293285239887026     4.1488991762386496E-4
-1.1333333333333333E-4    -7.171714483930323E-5    0.020629070338746686     1.5248878606513014E-4
-1.4499074006465195E-4    -3.5259075388104114E-5   0.16941460620285928      0.01984838739122913
-1.46782211552303E-4      -2.0012013723718963E-5   0.1718331072783388       0.014662601750773033
-1.4704082308354536E-4    -6.818965969129726E-6    0.16907662252026825      0.005188007148389248
-1.471490562847931E-4     6.035816969249523E-6     0.16892417418253178      -0.004742194704502826
-1.408807752471644E-4     4.381639461336174E-5     0.1579044627919004       -0.016443621883147772
-1.4712638888610144E-4    1.838162582360393E-5     0.17137432839784753      -0.013718233543195858
-1.4648123171634596E-4    3.16777995323497E-5      0.17150055294220737      -0.019599348995296032
-1.0896301348020891E-4    6.909774970842112E-5     0.03581794499045631      -3.2208175482729284E-4
-1.0666666666666667E-4    7.165255688225218E-5     0.020527338462534364     -1.0182904540521308E-4
-1.0287535844656492E-4    6.899932982305207E-5     0.035689227264287145     -3.134126895950863E-4
-1.0000000000000002E-4    7.165692218309294E-5     0.020128091981947035     -9.634708153120384E-5
-1.1299357492558154E-4    6.647017387571572E-5     0.05143507616611164      -7.730590686365414E-4
-1.2300862011312456E-4    6.064299435280149E-5     0.08558621782288517      -0.003101715721856864
-1.1675407416878625E-4    6.206657806278357E-5     0.07615910342112372      -0.00208901173565473
-1.2674053738999096E-4    5.349686205383234E-5     0.1201713252252729       -0.0067099165379938515
-1.3095058016842877E-4    4.43049387415854E-5      0.1529794723052942       -0.01231882965548966
-1.3625849405946632E-4    -4.3605167120867655E-5   0.15673202303622877      0.014828210030502106
-1.30025086557623E-4      -5.450281793114264E-5    0.11793830072610004      0.007380255400484073
-1.238234318729671E-4     -6.096389627571058E-5    0.08434352922478332      0.0030857989616223506
-1.1986754080946983E-4    -6.647168289249694E-5    0.05297124097741712      0.001092391452690583
-1.1237437083351062E-4    -6.954992593981619E-5    0.03358806860926447      3.8331006432968046E-4
-1.0666666666666667E-4    -7.171855610334323E-5    0.020115879190284222     1.0130409850305996E-4
-1.138019764568468E-4     -6.653335151751542E-5    0.05128380434148496      9.154799798363574E-4
-1.355097146253983E-4     -2.7153992660213403E-5   0.17622935980803586      0.015281574460013351
-1.276851482482003E-4     -3.3334264809239074E-5   0.17101612124278184      0.01349724976675531
-1.3643536439583725E-4    -1.328066280935442E-5    0.17742517478445466      0.008898489068790962
-1.3688404936654269E-4    -3.560976454558936E-7    0.17624653446033803      1.2903899404649564E-4
-1.3668372118600097E-4    1.2513286407931805E-5    0.1771533430579891       -0.008676663997973096
-1.3610664500379095E-4    3.224378827753137E-5     0.17261058044004662      -0.01614932004335134
-1.3849293818201747E-4    2.2580907106215304E-5    0.1759063500446234       -0.014017716741546648
-9.433798396356806E-5     6.917635800902632E-5     0.03394415814459816      -2.238972889530258E-4
-9.333333333333336E-5     7.166355451743907E-5     0.01975590670213696      -7.496190420792897E-5
-1.0681916681906383E-4    6.575686430937795E-5     0.05426596932325555      -7.977371477710174E-4
-9.954130822412159E-5     6.560192094607154E-5     0.05399505367767637      -6.738107759102218E-4
-1.2607912515374422E-4    3.309023918963914E-5     0.171809358270086        -0.012403352519635997
-1.1074986110222003E-4    6.053647175825329E-5     0.08224986126063322      -0.00194538745176478
-1.171283907042646E-4     5.449486190613067E-5     0.11235134620954391      -0.004665879287334308
-1.2161266286521851E-4    4.326421905638323E-5     0.1525052820632166       -0.009754634342792954
-1.2419966523468358E-4    -4.4513167660831255E-5   0.14964059084507506      0.009919131418239233
-1.0574749258661309E-4    -6.95456633455809E-5     0.03285926388633454      2.6239492976115353E-4
-9.999999999999996E-5     -7.171560698647734E-5    0.019794479243491307     7.423493313926377E-5
-1.1913184930049545E-4    -5.421140911658636E-5    0.11412159791112005      0.005046758271117418
-1.160402140414863E-4     -6.085367677216987E-5    0.0822833969207879       0.0024484405954713177
-1.0686467863311494E-4    -6.661368153588126E-5    0.049599173426378755     6.63834174759756E-4
-1.099455547113783E-4     -6.207856419608346E-5    0.07440266792654648      0.0017313945955283472
-9.906639209772949E-5     -6.942713780357965E-5    0.03298193722535442      2.1447912567815978E-4
-9.333333333333332E-5     -7.170992237819971E-5    0.01951616313065582      7.818943401975818E-5
-1.2527522972357737E-4    -1.967947843942527E-5    0.18250861192692383      0.010340056556024184
-1.1824703537068718E-4    -3.096351424743249E-5    0.17478114503583386      0.010891945891353257
-1.2626351636498982E-4    -6.748404650314798E-6    0.18331576131492197      0.004036588815106633
-1.1756263968103794E-4    -1.170236480897276E-5    0.18724191590441502      0.0058680231373218926
-1.262271831608834E-4     6.96886620405733E-6      0.18327469208548197      -0.0041858575823062105
-1.2609092445697962E-4    2.1563521579834532E-5    0.1812181284476924       -0.011153179502155162
-8.751102629173947E-5     6.924226985974344E-5     0.033169930560177675     -1.5026698198905087E-4
-8.666666666666667E-5     7.166761658726324E-5     0.01950205879171498      -5.282892535463073E-5
-8.101998954330417E-5     6.949194340575746E-5     0.031477965469613976     -1.348410417515563E-4
-7.999999999999999E-5     7.167447694666268E-5     0.01926736855491149      -5.105508627150481E-5
-9.317938430867867E-5     6.593465718566362E-5     0.051484853187281514     -4.768656082064882E-4
-1.0330975819949175E-4    6.088495133657973E-5     0.0788318191174706       -0.00163355972331133
-9.668408275649962E-5     6.108373820272984E-5     0.07654967999259919      -0.001309892668939333
-1.1674114925886369E-4    3.219414943466991E-5     0.1731988617879685       -0.010323103290723919
-1.0741950121191814E-4    5.316482561380665E-5     0.11436606663159839      -0.0038626102306469124
-1.1252286063201452E-4    4.3546939255941245E-5    0.1491184456907687       -0.007382463968759482
-1.1392613445321998E-4    -4.4421385775554094E-5   0.1469150615560071       0.007618632250835623
-1.0025471015788877E-4    -6.615051276426418E-5    0.051258961206482885     5.61220170167471E-4
-1.0967093109776035E-4    -5.486315663462651E-5    0.10833356110629469      0.0037535189552229957
-1.0346696217651857E-4    -6.140365846724794E-5    0.07637488275950306      0.001429533153908785
-9.162733022376017E-5     -6.923984625251714E-5    0.03341252212995894      2.3198377033454288E-4
-8.666666666666661E-5     -7.170306624015938E-5    0.0192800928724988       6.271624946655722E-5
-9.416324041687043E-5     -6.550799998795245E-5    0.053857408188517565     6.324365105615663E-4
-1.1363595962313522E-4    -2.0084820404831146E-5   0.18546307412554405      0.007933354011474202
-1.0905327153842738E-4    -3.114796218719853E-5    0.17453413430393946      0.008504661236113193
-1.0857128721853264E-4    -1.026134757828187E-5    0.19129040276474815      0.004235105742423851
-1.150955984664196E-4     -3.714013924001797E-7    0.18962364336189433      2.9304346370210465E-4
-1.157653041432704E-4     1.2468843370281377E-5    0.18762412657811123      -0.005798942136697066
-1.1452868510393112E-4    2.2470359369229955E-5    0.18315473729866336      -0.008465754287781247
-7.434390176840668E-5     6.939463822039638E-5     0.03169877441883675      -1.1911950338396256E-4
-7.333333333333333E-5     7.168356802055587E-5     0.01903494116862673      -4.121684194723872E-5
-8.650904123126327E-5     6.573205311000713E-5     0.05193363653402513      -3.952058209977191E-4
-7.96936795112999E-5      6.636939897219591E-5     0.04810826591888156      -3.1005077750286583E-4
-9.032831470965212E-5     6.048491904738592E-5     0.07852400424210439      -9.940660256118063E-4
-9.750544817626678E-5     5.385618216193519E-5     0.10934672720087014      -0.0026526994735421435
-1.0711254640129491E-4    3.091901089266596E-5     0.17504391207785777      -0.007994086470279322
-1.0292928504941535E-4    4.3051903594100746E-5    0.14834604411062127      -0.005792911305248936
-1.043137641486358E-4     -4.4960718825243954E-5   0.14303800114449527      0.005687446374754984
-8.44617259712968E-5      -6.926105963246112E-5    0.03285865057935645      1.673734773551678E-4
-7.999999999999997E-5     -7.16967412252029E-5     0.01909664862829056      5.390491776637446E-5
-9.624298283618058E-5     -6.0329092123026836E-5   0.08018917644944455      0.0014414206088053383
-9.967058166094025E-5     -5.357692066716885E-5    0.11084934069712978      0.002977397800196314
-8.733149200051981E-5     -6.550421854101497E-5    0.05310836670136082      4.5945706797491246E-4
-9.027824487383127E-5     -6.117868187826382E-5    0.07514929859838868      0.001091123125274645
-7.916807954886397E-5     -6.93776001231818E-5     0.03194748473783363      1.44628352516568E-4
-7.33333333333333E-5      -7.169993364836269E-5    0.018886298880056267     4.738449427223746E-5
-1.0404048418113767E-4    -1.963475747381902E-5    0.18794836729802814      0.006259837410570373
-9.95573569127376E-5      -3.1057095534073204E-5   0.17451453952413595      0.006454422809091386
-9.974890624937804E-5     -1.0167923642408611E-5   0.1941346997787691       0.003388018730195044
-1.0412851434453756E-4    -8.118581683007395E-7    0.19425129009470257      3.90481732063442E-4
-1.0716684951775024E-4    7.562327327739752E-6     0.19229033880383142      -0.002870770740871188
-9.617236889092809E-5     -1.8260826681184237E-6   0.1968320188533043       6.22993614534929E-4
-1.0462935116029086E-4    1.82301256321883E-5      0.18863168611751727      -0.005913919994876637
-6.767399680756496E-5     6.932332129707919E-5     0.031820528993622914     -1.0159380260120692E-4
-6.666666666666671E-5     7.169007074336464E-5     0.018847868396299667     -3.857331896718007E-5
-6.09176883953937E-5      6.953232950161601E-5     0.030483439018553733     -9.16704356452255E-5
-6.000000000000002E-5     7.169308989932017E-5     0.018693650140153777     -3.577690590127058E-5
-7.280784978522821E-5     6.619829216268297E-5     0.04853586146071747      -2.830508246126845E-4
-8.322376635264699E-5     6.105220409369359E-5     0.07499402663715925      -8.283684194467243E-4
-7.661163100991834E-5     6.156577472174904E-5     0.07181645053966373      -7.30141839737835E-4
-8.686254122379757E-5     5.3172507729957536E-5    0.1100246798135983       -0.0020717050335531625
-9.25772237153094E-5      4.210025839482612E-5     0.14928044254747272      -0.004588054792100407
-9.732894271467142E-5     2.923066633059029E-5     0.1779381169280623       -0.006362320199918891
-9.461484886975376E-5     -4.392097587949345E-5    0.14409823727868246      0.004564019575661146
-8.00032002432062E-5      -6.633560221949378E-5    0.0482176504075508       3.3535343786621127E-4
-8.991565187483948E-5     -5.392893078897111E-5    0.1075396737229036       0.0022478639726391456
-8.39753626447128E-5      -6.032461627762777E-5    0.07836514011356967      9.468256612545498E-4
-7.242111585239889E-5     -6.955519554875122E-5    0.030669732116712475     1.1696142073280387E-4
-6.666666666666666E-5     -7.170976961860372E-5    0.018680040300584903     2.5755700520777382E-5
-7.382792555073033E-5     -6.658294431424746E-5    0.04651299958259605      2.948539628061121E-4
-9.407532465798555E-5     -1.8750639312831185E-5   0.19041905756978236      0.004707212220403339
-8.939725601673239E-5     -3.123799294424878E-5    0.174073353935463        0.005019811584233068