% Model:              Untitled.mph
% Version:            COMSOL 6.2.0.290
% Date:               Feb 9 2024, 12:09
% Dimension:          3
% Nodes:              3205
% Expressions:        1
% Description:        Slice
% x                       y                        z                        Shear rate
-0.00100372338001394      -2.577752720049476E-5    4.9999999999999996E-5    4.677173288355978
-0.0010043300223451365    -2.499471749100227E-5    5.0E-5                   3.9461416059440997
-0.00100372338001394      -2.4279590098992036E-5   5.0E-5                   3.4385434124657643
-0.00100372338001394      -3.942619882908571E-5    5.0E-5                   1.8469950264956267
-0.0010086384715788394    -3.532209659131476E-5    5.0E-5                   1.6160318563501346
-0.00100372338001394      -2.73739080947022E-5     5.000000000000001E-5     2.705974104379584
-0.0010037233800139398    -4.829853645317922E-15   5.0E-5                   3.3871458706185833
-0.0010166821927243565    -1.2118576963653279E-5   5.0E-5                   3.1292795874791253